MPI startup(): PMI server not found. Please set I_MPI_PMI_LIBRARY variable if it is not a singleton case.
MPI startup(): I_MPI_LD_PRELOAD environment variable is not supported.
MPI startup(): To check the list of supported variables, use the impi_info utility or refer to https://www.intel.com/content/www/us/en/docs/mpi-library/get-started-guide-linux/2021-6/overview.html.
  ABINIT 10.4.7
  
ABI_PSPDIR  found in environment, with value /scratch/11603/crw405/2.project/1.build_scripts/2.apps/abinit/abinit-10.4.7/tests/Pspdir/
-instrng: 68 lines of input have been read from file /scratch/11603/crw405/2.project/1.build_scripts/2.apps/abinit/abinit-10.4.7/tests/v1/Input/t05.abi
 
 
--- !COMMENT
src_file: m_dtfil.F90
src_line: 1508
message: |
    Output file: /scratch/11603/crw405/2.project/1.build_scripts/2.apps/abinit/abinit-10.4.7/tests/v1/Input/t05.abo already exists.
...
 
 
--- !COMMENT
src_file: m_dtfil.F90
src_line: 1532
message: |
    Renaming old: /scratch/11603/crw405/2.project/1.build_scripts/2.apps/abinit/abinit-10.4.7/tests/v1/Input/t05.abo to: /scratch/11603/crw405/2.project/1.build_scripts/2.apps/abinit/abinit-10.4.7/tests/v1/Input/t05.abo0011
...
 

.Version 10.4.7 of ABINIT, released Sep 2025.
.(MPI version, prepared for a x86_64_linux_intel2021.11 computer) 

.Copyright (C) 1998-2025 ABINIT group . 
 ABINIT comes with ABSOLUTELY NO WARRANTY.
 It is free software, and you are welcome to redistribute it
 under certain conditions (GNU General Public License,
 see ~abinit/COPYING or http://www.gnu.org/copyleft/gpl.txt).

 ABINIT is a project of the Universite Catholique de Louvain,
 Corning Inc. and other collaborators, see ~abinit/doc/developers/contributors.txt .
 Please read https://docs.abinit.org/theory/acknowledgments for suggested
 acknowledgments of the ABINIT effort.
 For more information, see https://www.abinit.org .

.Starting date : Mon 29 Jun 2026.
- ( at 14h28 )
  
 
 ++++++++++++++++++++++++++++++++++++++++++++++++++++++++++++++++++++++++++++++
 
 === Build Information === 
  Version       : 10.4.7
  Build target  : x86_64_linux_intel2021.11
  Build date    : 20260617
 
 === Compiler Suite === 
  C compiler       : intel2024.0
  C++ compiler     : gnuoneAPI
  Fortran compiler : intel2021.11
  CFLAGS           :  -O2     -I/opt/apps/intel24/netcdf/4.9.2/include  -I/scratch/11603 ...
  CXXFLAGS         :  -O2 -march=native
  FCFLAGS          : -g -O2 -xCORE-AVX512  -qopenmp   -I/opt/apps/intel24/netcdf/4.9.2/i ...
  FC_LDFLAGS       : 
 
 === Optimizations === 
  Debug level        : basic
  Optimization level : standard
  Architecture       : intel_xeon
 
 === Multicore === 
  Parallel build : yes
  Parallel I/O   : yes
  openMP support : yes
  GPU support    : @with_gpu@
 
 === Connectors / Fallbacks === 
  LINALG flavor  : mkl
  FFT flavor     : dfti
  HDF5           : yes
  NetCDF         : yes
  NetCDF Fortran : yes
  LibXC          : yes
  Wannier90      : yes
 
 === Experimental features === 
  Exports             : @enable_exports@
  GW double-precision : yes
 
 ++++++++++++++++++++++++++++++++++++++++++++++++++++++++++++++++++++++++++++++
 

 ++++++++++++++++++++++++++++++++++++++++++++++++++++++++++++++++++++++++++++++
 Default optimizations:
   --- None ---


 ++++++++++++++++++++++++++++++++++++++++++++++++++++++++++++++++++++++++++++++


 ++++++++++++++++++++++++++++++++++++++++++++++++++++++++++++++++++++++++++++++
 CPP options activated during the build:

           CC_INTEL_ONEAPI                   CXX_GNU                  FC_INTEL
 
                 HAVE_DFTI HAVE_FC_ALLOCATABLE_DT...             HAVE_FC_ASYNC
 
  HAVE_FC_COMMAND_ARGUMENT      HAVE_FC_COMMAND_LINE        HAVE_FC_CONTIGUOUS
 
           HAVE_FC_CPUTIME             HAVE_FC_ETIME              HAVE_FC_EXIT
 
             HAVE_FC_FLUSH             HAVE_FC_GAMMA            HAVE_FC_GETENV
 
            HAVE_FC_GETPID   HAVE_FC_IEEE_ARITHMETIC   HAVE_FC_IEEE_EXCEPTIONS
 
             HAVE_FC_IOMSG     HAVE_FC_ISO_C_BINDING  HAVE_FC_ISO_FORTRAN_2008
 
        HAVE_FC_LONG_LINES        HAVE_FC_MOVE_ALLOC  HAVE_FC_ON_THE_FLY_SHAPE
 
           HAVE_FC_PRIVATE         HAVE_FC_PROTECTED           HAVE_FC_SHIFTLR
 
         HAVE_FC_STREAM_IO            HAVE_FC_SYSTEM               HAVE_GW_DPC
 
                 HAVE_HDF5             HAVE_HDF5_MPI        HAVE_LIBPAW_ABINIT
 
      HAVE_LIBTETRA_ABINIT                HAVE_LIBXC         HAVE_LINALG_AXPBY
 
        HAVE_LINALG_GEMM3M         HAVE_LINALG_GEMMT  HAVE_LINALG_MKL_IMATCOPY
 
   HAVE_LINALG_MKL_OMATADD  HAVE_LINALG_MKL_OMATCOPY   HAVE_LINALG_MKL_THREADS
 
     HAVE_LINALG_SCALAPACK                  HAVE_MPI                 HAVE_MPI2
 
         HAVE_MPI2_INPLACE       HAVE_MPI_IALLGATHER       HAVE_MPI_IALLREDUCE
 
        HAVE_MPI_IALLTOALL       HAVE_MPI_IALLTOALLV           HAVE_MPI_IBCAST
 
         HAVE_MPI_IGATHERV        HAVE_MPI_INTEGER16               HAVE_MPI_IO
 
 HAVE_MPI_TYPE_CREATE_S...               HAVE_NETCDF       HAVE_NETCDF_FORTRAN
 
         HAVE_OMP_COLLAPSE               HAVE_OPENMP             HAVE_OS_LINUX
 
         HAVE_TIMER_ABINIT            HAVE_WANNIER90                  HAVE_XML
 
 ++++++++++++++++++++++++++++++++++++++++++++++++++++++++++++++++++++++++++++++

- input  file    -> /scratch/11603/crw405/2.project/1.build_scripts/2.apps/abinit/abinit-10.4.7/tests/v1/Input/t05.abi
- output file    -> /scratch/11603/crw405/2.project/1.build_scripts/2.apps/abinit/abinit-10.4.7/tests/v1/Input/t05.abo
- root for input  files -> t05i
- root for output files -> t05o
 
 abinit : after writing the name of files
ABI_PSPDIR  found in environment, with value /scratch/11603/crw405/2.project/1.build_scripts/2.apps/abinit/abinit-10.4.7/tests/Pspdir/
-instrng: 68 lines of input have been read from file /scratch/11603/crw405/2.project/1.build_scripts/2.apps/abinit/abinit-10.4.7/tests/v1/Input/t05.abi
 
 For atom type 1, psp file is /scratch/11603/crw405/2.project/1.build_scripts/2.apps/abinit/abinit-10.4.7/tests/Pspdir/PseudosGTH_pwteter/13al.pspgth
  read the values zionpsp=  3.0 , pspcod=   2 , lmax=   1
 
 inpspheads: deduce mpsang = 2, n1xccc = 0.

======================================================= 
 invars1m : enter jdtset= 0
  xred   is defined in input file
 ingeo: takes atomic coordinates from input array xred
 
 symlatt: the Bravais lattice is cF (face-centered cubic)
 symspgr: spgroup= 216  F-4 3 m   (=Td^2)
 symspgr: optical characteristics = isotropic
 inkpts: Sum of 2 k point weights is    4.000000
 With present occopt= 1, renormalize it to one
 inkpts: Sum of 2 k point weights is    4.000000
 With present occopt= 3, renormalize it to one
 initocc_chkneu: initialized the occupation numbers for occopt= 3, spin-unpolarized or antiferromagnetic case:
  2.00  1.00  0.00  0.00
 mpi_setup: With nkpt_me=2 and mkmem  = 2, ground state wf handled in core.
 mpi_setup: With nkpt_me=2 and mkqmem = 2, ground state wf handled in core.
 mpi_setup: With nkpt_me=2 and mk1mem = 2, ground state wf handled in core.
 For input ecut=  1.000000E+01 best grid ngfft=      16      16      16
       max ecut=  1.093585E+01
 
 ==== FFT mesh ====
  FFT mesh divisions ........................    16   16   16
  Augmented FFT divisions ...................    17   17   16
  FFT algorithm .............................   400
  FFT cache size ............................    16
 getmpw: optimal value of mpw= 171
 Symmetries : space group F-4 3 m (#216); Bravais cF (face-center cubic)
 
 getdim_nloc: deduce lmnmax  =   5, lnmax  =   3,
                      lmnmaxso=   5, lnmaxso=   3.
memory: analysis of memory needs
================================================================================
 Values of the parameters that define the memory need of the present run
     intxc =       1    ionmov =       0      iscf =       7    lmnmax =       3
     lnmax =       3     mgfft =      16  mpssoang =       2    mqgrid =    3001
     natom =       1  nloc_mem =       1    nspden =       1   nspinor =       1
    nsppol =       1      nsym =      24    n1xccc =       0    ntypat =       1
    occopt =       3   xclevel =       1
-    mband =           4        mffmem =           1         mkmem =           2
       mpw =         171          nfft =        4096          nkpt =           2
================================================================================
P This job should need less than                       2.485 Mbytes of memory.
  Rough estimation (10% accuracy) of disk space for files :
_ WF disk file :      0.023 Mbytes ; DEN or POT disk file :      0.033 Mbytes.
================================================================================
 
 Biggest array : f_fftgr(disk), with      0.5020 MBytes.
 memana : allocated an array of      0.502 Mbytes, for testing purposes.
 memana: allocated       2.485Mbytes, for testing purposes. 
 The job will continue.
--------------------------------------------------------------------------------
------------- Echo of variables that govern the present computation ------------
--------------------------------------------------------------------------------
-
- outvars: echo of selected default values
-   iomode0 =  0 , fftalg0 =512 , wfoptalg0 =  0
-
- outvars: echo of global parameters not present in the input file
-  max_nthreads =    1
-
 -outvars: echo values of preprocessed input variables --------
 
 These variables are accessible in NetCDF format (t05o_OUT.nc)

            acell      7.6000000000E+00  7.6000000000E+00  7.6000000000E+00 Bohr
              amu      2.69815390E+01
             ecut      1.00000000E+01 Hartree
           enunit           2
-          fftalg         400
            intxc           1
              kpt      1.00000000E+00  1.00000000E+00  1.00000000E+00
                       1.00000000E+00  2.00000000E+00  2.00000000E+00
           kptnrm      4.00000000E+00
           kptopt           0
P           mkmem           2
            natom           1
            nband           4
            ngfft          16      16      16
             nkpt           2
            nline           3
            nstep           8
             nsym          24
           ntypat           1
              occ      2.000000  1.000000  0.000000  0.000000
                       2.000000  1.000000  0.000000  0.000000
           occopt           3
           prtvol          10
            rprim      0.0000000000E+00  5.0000000000E-01  5.0000000000E-01
                       5.0000000000E-01  0.0000000000E+00  5.0000000000E-01
                       5.0000000000E-01  5.0000000000E-01  0.0000000000E+00
          spgroup         216
           symrel      1  0  0   0  1  0   0  0  1       0  1 -1   1  0 -1   0  0 -1
                      -1  0  0  -1  0  1  -1  1  0       0 -1  1   0 -1  0   1 -1  0
                      -1  0  1  -1  0  0  -1  1  0       0 -1  0   0 -1  1   1 -1  0
                       0 -1  1   1 -1  0   0 -1  0       0  1 -1   0  0 -1   1  0 -1
                       0  0 -1   1  0 -1   0  1 -1      -1  1  0  -1  0  1  -1  0  0
                       1  0 -1   0  1 -1   0  0 -1       1 -1  0   0 -1  0   0 -1  1
                      -1  0  0  -1  1  0  -1  0  1       0  1  0   1  0  0   0  0  1
                       0  0  1   0  1  0   1  0  0       1  0  0   0  0  1   0  1  0
                       0  0  1   1  0  0   0  1  0       0  1  0   0  0  1   1  0  0
                      -1  0  1  -1  1  0  -1  0  0       0  0 -1   0  1 -1   1  0 -1
                       1  0 -1   0  0 -1   0  1 -1       1 -1  0   0 -1  1   0 -1  0
                       0 -1  0   1 -1  0   0 -1  1      -1  1  0  -1  0  0  -1  0  1
           tolwfr      1.00000000E-16
           tsmear      2.00000000E-02 Hartree
            typat      1
              wtk        0.25000    0.75000
            znucl       13.00000
 
================================================================================
 
 chkinp: Checking input parameters for consistency.
 DATA TYPE INFORMATION: 
 REAL:      Data type name: REAL(DP) 
            Kind value:      8
            Precision:      15
            Smallest nonnegligible quantity relative to 1:  0.22204460E-015
            Smallest positive number:                       0.22250739E-307
            Largest representable number:                   0.17976931E+309
 INTEGER:   Data type name: INTEGER(default) 
            Kind value: 4
            Bit size:   32
            Largest representable number: 2147483647
 LOGICAL:   Data type name: LOGICAL 
            Kind value: 4
 CHARACTER: Data type name: CHARACTER             Kind value: 1

  ==== OpenMP parallelism is ON ====
- Max_threads:       1
- Num_threads:       1
- Num_procs:         48
- Dynamic:           F
 
  ==== Using MPI-2 specifications ==== 
  MPI-IO support is ON
  xmpi_tag_ub ................       524287
  xmpi_bsize_ch ..............            1
  xmpi_bsize_int .............            4
  xmpi_bsize_sp ..............            4
  xmpi_bsize_dp ..............            8
  xmpi_bsize_spc .............            8
  xmpi_bsize_dpc .............           16
  xmpio_bsize_frm ............            4
  xmpi_address_kind ..........            8
  xmpi_offset_kind ...........            8
  MPI_WTICK ..................   4.773096089756402E-010
 
================================================================================
== DATASET  1 ==================================================================
-   mpi_nproc: 1, omp_nthreads: 1 (-1 if OMP is not activated)
 
 
--- !COMMENT
src_file: m_xgScalapack.F90
src_line: 241
message: |
    xgScalapack in auto mode
...
 
 
 getdim_nloc: deduce lmnmax  =   5, lnmax  =   3,
                      lmnmaxso=   5, lnmaxso=   3.
 Exchange-correlation functional for the present dataset will be:
  LDA: new Teter (4/93) with spin-polarized option - ixc=1
 Citation for XC functional:
  S. Goedecker, M. Teter, J. Huetter, PRB 54, 1703 (1996)
 
 Unit cell volume ucvol=  1.0974400E+02 bohr^3
 Angles (23,13,12)=  6.00000000E+01  6.00000000E+01  6.00000000E+01 degrees
 
 getcut: wavevector=  0.0000  0.0000  0.0000  ngfft=  16  16  16
         ecut(hartree)=     10.000   => boxcut(ratio)=   2.09149
- pspini: atom type   1  psp file is /scratch/11603/crw405/2.project/1.build_scripts/2.apps/abinit/abinit-10.4.7/tests/Pspdir/PseudosGTH_pwteter/13al.pspgth
- pspatm: opening atomic psp file    /scratch/11603/crw405/2.project/1.build_scripts/2.apps/abinit/abinit-10.4.7/tests/Pspdir/PseudosGTH_pwteter/13al.pspgth
- Goedecker-Teter-Hutter  Tue May 28 09:24:05 EDT 1996
- 13.00000   3.00000    960528                znucl, zion, pspdat
    2    1    1    0      2001   0.00000      pspcod,pspxc,lmax,lloc,mmax,r2well
 rloc=   0.4500000
  cc1=  -6.8340578; cc2=   0.0000000; cc3=   0.0000000; cc4=   0.0000000
  rrs=   0.4654363; h1s=   2.8140777; h2s=   1.9395165
  rrp=   0.5462433; h1p=   1.9160118
-  Local part computed in reciprocal space.
 
 pspatm : COMMENT -
  the projectors are not normalized,
  so that the KB energies are not consistent with 
  definition in PRB44, 8503 (1991). 
  However, this does not influence the results obtained hereafter.
  pspatm : epsatm=   -5.99108991
         --- l  ekb(1:nproj) -->
             0    1.005823    0.184862
             1    0.220213
 pspatm: atomic psp has been read  and splines computed
 
  -1.79732697E+01                                ecore*ucvol(ha*bohr**3)
 ==== Info on pseudopotentials ====
  Norm-conserving pseudopotentials
  Number of pseudopotentials ..    1
  Number of types of atoms   ..    1
  Scalar calculation (no spin-orbit term)
  Nonlocal part applied using Legendre polynomials
  Max number of non-local projectors over l and type   2
  Highest angular momentum +1 .......   2
  Max number of (l,n)   components ..   3
  Max number of (l,m,n) components ..   3
 
 Info on the Q-grid used for form factors in spline form: 
   Number of q-points for radial functions ffspl ..   3001
   Number of q-points for vlspl ...................   3001
   vloc is computed in Reciprocal Space
   model core charge treated in real-space
 
  XC functional for type 1 is 1
  Pseudo valence available: no
  Pseudo number              1  read from 
 /scratch/11603/crw405/2.project/1.build_scripts/2.apps/abinit/abinit-10.4.7/tes
 ts/Pspdir/PseudosGTH_pwteter/13al.pspgth
  Format or code             2
  Generation date       960528
  Content of first line: Goedecker-Teter-Hutter  Tue May 28 09:24:05 EDT 1996
 
 symatm: atom number 1 is reached starting at atom
   1  1  1  1  1  1  1  1  1  1  1  1  1  1  1  1  1  1  1  1  1  1  1  1
 wfconv:     4 bands initialized randomly with npw=   162, for ikpt=     1
 wfconv:     4 bands initialized randomly with npw=   171, for ikpt=     2
_setup2: Arith. and geom. avg. npw (full set) are     168.750     168.704
 initro: for itypat=  1, take decay length=      1.2500,
 initro: indeed, coreel=     10.0000, nval=  3 and densty=  0.0000E+00.
 
================================================================================
 
 getcut: wavevector=  0.0000  0.0000  0.0000  ngfft=  16  16  16
         ecut(hartree)=     10.000   => boxcut(ratio)=   2.09149
 
 1/G**2 cut-off applied in the following step : cutoff-mode = CRYSTAL
 
 1/G**2 cut-off applied in the following step : cutoff-mode = CRYSTAL
 
 1/G**2 cut-off applied in the following step : cutoff-mode = CRYSTAL
 
 ITER STEP NUMBER     1
 vtorho: nnsclo_now = 2, note that nnsclo, dbl_nnsclo, istep= 0 0 1
 non-scf iterations; kpt #     1  , k= (  0.25000  0.25000  0.25000  ), band residuals:
 cgwf: tolwfr_diago=    1.000000E-16
 --- cgwf is called for band     1  for  3 lines
 --- cgwf is called for band     2  for  3 lines
 --- cgwf is called for band     3  for  3 lines
 --- cgwf is called for band     4  for  3 lines
 res:  1.71E-01  9.91E-02  1.35E-01  9.94E-02
 Performing subspace diagonalization.
 ene:  3.38E-02  4.84E-01  7.79E-01  9.13E-01
 Calling pw_orthon to orthonormalize bands.
 --- cgwf is called for band     1  for  3 lines
 --- cgwf is called for band     2  for  3 lines
 --- cgwf is called for band     3  for  3 lines
 --- cgwf is called for band     4  for  3 lines
 res:  2.34E-03  2.01E-04  2.73E-03  2.47E-02
 Performing subspace diagonalization.
 ene: -4.09E-03  4.75E-01  7.54E-01  7.67E-01
 Calling pw_orthon to orthonormalize bands.
     eigenvalues (hartree) for    4  bands
              after    3 non-SCF iterations with    3 CG line minimizations
 -4.0865E-03  4.7540E-01  7.5394E-01  7.6724E-01
      mean kinetic energy (hartree) for     4   bands
              after    3 non-SCF iterations with    3 CG line minimizations
  1.0226E-01  6.1242E-01  9.4924E-01  9.5854E-01
      mean NL+Fock-type energy (hartree) for     4   bands
              after    3 non-SCF iterations with    3 CG line minimizations
  1.1760E-01  1.3288E-01  1.7389E-01  1.9700E-01
 non-scf iterations; kpt #     2  , k= (  0.25000  0.50000  0.50000  ), band residuals:
 --- cgwf is called for band     1  for  3 lines
 --- cgwf is called for band     2  for  3 lines
 --- cgwf is called for band     3  for  3 lines
 --- cgwf is called for band     4  for  3 lines
 res:  6.09E-02  3.17E-02  1.79E-02  2.60E-02
 Performing subspace diagonalization.
 ene:  1.66E-01  3.36E-01  4.93E-01  6.49E-01
 Calling pw_orthon to orthonormalize bands.
 --- cgwf is called for band     1  for  3 lines
 --- cgwf is called for band     2  for  3 lines
 --- cgwf is called for band     3  for  3 lines
 --- cgwf is called for band     4  for  3 lines
 res:  3.13E-04  6.85E-04  4.04E-04  2.76E-03
 Performing subspace diagonalization.
 ene:  1.59E-01  3.19E-01  4.83E-01  6.10E-01
 Calling pw_orthon to orthonormalize bands.
     eigenvalues (hartree) for    4  bands
              after    3 non-SCF iterations with    3 CG line minimizations
  1.5864E-01  3.1874E-01  4.8330E-01  6.1039E-01
      mean kinetic energy (hartree) for     4   bands
              after    3 non-SCF iterations with    3 CG line minimizations
  2.6587E-01  4.3795E-01  6.1212E-01  7.6877E-01
      mean NL+Fock-type energy (hartree) for     4   bands
              after    3 non-SCF iterations with    3 CG line minimizations
  1.1945E-01  1.2909E-01  1.4821E-01  1.7477E-01
 newocc: new Fermi energy is       0.332543 , with nelect=      3.000000, Number of bisection calls: 49
 newocc: computed new occ. numbers for occopt= 3 , spin-unpolarized case.
 2.000 0.002 0.000 0.000
 2.000 1.332 0.001 0.000
 mkrho: echo density (plane-wave part only)
 Total charge density [el/Bohr^3]
)     Maximum=    3.2594E-02  at reduced coord.    0.1250    0.1875    0.5625
)     Minimum=    1.0823E-04  at reduced coord.    0.0000    0.0000    0.0000
   Integrated=    3.0000E+00
 Total charge density [el/Bohr^3]
)     Maximum=    3.2594E-02  at reduced coord.    0.1250    0.1875    0.5625
)     Minimum=    1.0823E-04  at reduced coord.    0.0000    0.0000    0.0000
   Integrated=    3.0000E+00
 
 1/G**2 cut-off applied in the following step : cutoff-mode = CRYSTAL
 
 ETOT  1  -2.1033662791566    -2.103E+00 2.467E-02 7.983E-01
 prteigrs : about to open file t05o_EIG
 Fermi (or HOMO) energy (hartree) =   0.33254   Average Vxc (hartree)=  -0.34518
 Eigenvalues (hartree) for nkpt=   2  k points:
 kpt#   1, nband=  4, wtk=  0.25000, kpt=  0.2500  0.2500  0.2500 (reduced coord)
  -0.00409    0.47540    0.75394    0.76724
      occupation numbers for kpt#   1
   2.00000    0.00158    0.00000    0.00000
 kpt#   2, nband=  4, wtk=  0.75000, kpt=  0.2500  0.5000  0.5000 (reduced coord)
   0.15864    0.31874    0.48330    0.61039
      occupation numbers for kpt#   2
   1.99967    1.33208    0.00106    0.00000
 Fermi (or HOMO) energy (eV) =   9.04895   Average Vxc (eV)=  -9.39276
 Eigenvalues (   eV  ) for nkpt=   2  k points:
 kpt#   1, nband=  4, wtk=  0.25000, kpt=  0.2500  0.2500  0.2500 (reduced coord)
  -0.11120   12.93623   20.51566   20.87769
 kpt#   2, nband=  4, wtk=  0.75000, kpt=  0.2500  0.5000  0.5000 (reduced coord)
   4.31684    8.67326   13.15134   16.60948
 scprqt: <Vxc>= -3.4517776E-01 hartree
 
 Simple mixing update:
  residual square of the potential:   0.615472870083938
{SCF_istep: 1 , Vnl|psi>: 64 , wall_time: '  0.16 [s] '} <<< TIME
 
 ITER STEP NUMBER     2
 vtorho: nnsclo_now = 2, note that nnsclo, dbl_nnsclo, istep= 0 0 2
 non-scf iterations; kpt #     1  , k= (  0.25000  0.25000  0.25000  ), band residuals:
 --- cgwf is called for band     1  for  3 lines
 --- cgwf is called for band     2  for  3 lines
 --- cgwf is called for band     3  for  3 lines
 --- cgwf is called for band     4  for  3 lines
 res:  1.82E-05  5.30E-06  8.58E-06  2.04E-04
 Performing subspace diagonalization.
 ene: -4.44E-03  4.75E-01  7.51E-01  7.52E-01
 Calling pw_orthon to orthonormalize bands.
 --- cgwf is called for band     1  for  3 lines
 --- cgwf is called for band     2  for  3 lines
 --- cgwf is called for band     3  for  3 lines
 --- cgwf is called for band     4  for  3 lines
 res:  3.20E-09  4.78E-09  1.21E-07  1.22E-05
 Performing subspace diagonalization.
 ene: -4.44E-03  4.75E-01  7.51E-01  7.51E-01
 Calling pw_orthon to orthonormalize bands.
     eigenvalues (hartree) for    4  bands
              after    3 non-SCF iterations with    3 CG line minimizations
 -4.4377E-03  4.7492E-01  7.5140E-01  7.5140E-01
      mean kinetic energy (hartree) for     4   bands
              after    3 non-SCF iterations with    3 CG line minimizations
  1.0343E-01  6.1387E-01  9.5188E-01  9.5186E-01
      mean NL+Fock-type energy (hartree) for     4   bands
              after    3 non-SCF iterations with    3 CG line minimizations
  1.1774E-01  1.3450E-01  1.7322E-01  1.7338E-01
 non-scf iterations; kpt #     2  , k= (  0.25000  0.50000  0.50000  ), band residuals:
 --- cgwf is called for band     1  for  3 lines
 --- cgwf is called for band     2  for  3 lines
 --- cgwf is called for band     3  for  3 lines
 --- cgwf is called for band     4  for  3 lines
 res:  1.12E-05  1.40E-05  1.70E-05  3.28E-04
 Performing subspace diagonalization.
 ene:  1.59E-01  3.18E-01  4.83E-01  6.06E-01
 Calling pw_orthon to orthonormalize bands.
 --- cgwf is called for band     1  for  3 lines
 --- cgwf is called for band     2  for  3 lines
 --- cgwf is called for band     3  for  3 lines
 --- cgwf is called for band     4  for  3 lines
 res:  2.12E-09  7.37E-09  3.20E-08  1.29E-05
 Performing subspace diagonalization.
 ene:  1.59E-01  3.18E-01  4.83E-01  6.05E-01
 Calling pw_orthon to orthonormalize bands.
     eigenvalues (hartree) for    4  bands
              after    3 non-SCF iterations with    3 CG line minimizations
  1.5873E-01  3.1848E-01  4.8264E-01  6.0545E-01
      mean kinetic energy (hartree) for     4   bands
              after    3 non-SCF iterations with    3 CG line minimizations
  2.6785E-01  4.3948E-01  6.1382E-01  7.6449E-01
      mean NL+Fock-type energy (hartree) for     4   bands
              after    3 non-SCF iterations with    3 CG line minimizations
  1.2386E-01  1.3123E-01  1.5848E-01  1.7874E-01
 newocc: new Fermi energy is       0.332289 , with nelect=      3.000000, Number of bisection calls: 49
 newocc: computed new occ. numbers for occopt= 3 , spin-unpolarized case.
 2.000 0.002 0.000 0.000
 2.000 1.332 0.001 0.000
 mkrho: echo density (plane-wave part only)
 Total charge density [el/Bohr^3]
)     Maximum=    3.2690E-02  at reduced coord.    0.7500    0.9375    0.9375
)     Minimum=    7.9151E-05  at reduced coord.    0.0000    0.0000    0.0000
   Integrated=    3.0000E+00
 Total charge density [el/Bohr^3]
)     Maximum=    3.2690E-02  at reduced coord.    0.7500    0.9375    0.9375
)     Minimum=    7.9151E-05  at reduced coord.    0.0000    0.0000    0.0000
   Integrated=    3.0000E+00
 
 ETOT  2  -2.1042355220892    -8.692E-04 1.292E-05 1.729E-02
 prteigrs : about to open file t05o_EIG
 Fermi (or HOMO) energy (hartree) =   0.33229   Average Vxc (hartree)=  -0.34514
 Eigenvalues (hartree) for nkpt=   2  k points:
 kpt#   1, nband=  4, wtk=  0.25000, kpt=  0.2500  0.2500  0.2500 (reduced coord)
  -0.00444    0.47492    0.75140    0.75140
      occupation numbers for kpt#   1
   2.00000    0.00160    0.00000    0.00000
 kpt#   2, nband=  4, wtk=  0.75000, kpt=  0.2500  0.5000  0.5000 (reduced coord)
   0.15873    0.31848    0.48264    0.60545
      occupation numbers for kpt#   2
   1.99966    1.33205    0.00109    0.00000
 Fermi (or HOMO) energy (eV) =   9.04204   Average Vxc (eV)=  -9.39181
 Eigenvalues (   eV  ) for nkpt=   2  k points:
 kpt#   1, nband=  4, wtk=  0.25000, kpt=  0.2500  0.2500  0.2500 (reduced coord)
  -0.12076   12.92331   20.44656   20.44659
 kpt#   2, nband=  4, wtk=  0.75000, kpt=  0.2500  0.5000  0.5000 (reduced coord)
   4.31930    8.66638   13.13320   16.47504
 scprqt: <Vxc>= -3.4514256E-01 hartree
 
 Pulay update with  1 previous iterations:
 mixing of old trial potential: alpha(m:m-4)=   1.17     -0.165
{SCF_istep: 2 , Vnl|psi>: 64 , wall_time: '  0.03 [s] '} <<< TIME
 
 ITER STEP NUMBER     3
 vtorho: nnsclo_now = 1, note that nnsclo, dbl_nnsclo, istep= 0 0 3
 non-scf iterations; kpt #     1  , k= (  0.25000  0.25000  0.25000  ), band residuals:
 --- cgwf is called for band     1  for  3 lines
 --- cgwf is called for band     2  for  3 lines
 --- cgwf is called for band     3  for  3 lines
 --- cgwf is called for band     4  for  3 lines
 res:  7.30E-08  8.49E-08  2.05E-07  2.02E-07
 Performing subspace diagonalization.
 ene: -4.67E-03  4.75E-01  7.51E-01  7.51E-01
 Calling pw_orthon to orthonormalize bands.
     eigenvalues (hartree) for    4  bands
              after    2 non-SCF iterations with    3 CG line minimizations
 -4.6663E-03  4.7462E-01  7.5074E-01  7.5074E-01
      mean kinetic energy (hartree) for     4   bands
              after    2 non-SCF iterations with    3 CG line minimizations
  1.0377E-01  6.1421E-01  9.5211E-01  9.5212E-01
      mean NL+Fock-type energy (hartree) for     4   bands
              after    2 non-SCF iterations with    3 CG line minimizations
  1.1793E-01  1.3472E-01  1.7397E-01  1.7392E-01
 non-scf iterations; kpt #     2  , k= (  0.25000  0.50000  0.50000  ), band residuals:
 --- cgwf is called for band     1  for  3 lines
 --- cgwf is called for band     2  for  3 lines
 --- cgwf is called for band     3  for  3 lines
 --- cgwf is called for band     4  for  3 lines
 res:  1.40E-07  1.62E-07  1.98E-07  1.36E-06
 Performing subspace diagonalization.
 ene:  1.59E-01  3.18E-01  4.82E-01  6.05E-01
 Calling pw_orthon to orthonormalize bands.
     eigenvalues (hartree) for    4  bands
              after    2 non-SCF iterations with    3 CG line minimizations
  1.5851E-01  3.1822E-01  4.8230E-01  6.0486E-01
      mean kinetic energy (hartree) for     4   bands
              after    2 non-SCF iterations with    3 CG line minimizations
  2.6821E-01  4.3979E-01  6.1428E-01  7.6471E-01
      mean NL+Fock-type energy (hartree) for     4   bands
              after    2 non-SCF iterations with    3 CG line minimizations
  1.2416E-01  1.3143E-01  1.5882E-01  1.7911E-01
 newocc: new Fermi energy is       0.332029 , with nelect=      3.000000, Number of bisection calls: 48
 newocc: computed new occ. numbers for occopt= 3 , spin-unpolarized case.
 2.000 0.002 0.000 0.000
 2.000 1.332 0.001 0.000
 mkrho: echo density (plane-wave part only)
 Total charge density [el/Bohr^3]
)     Maximum=    3.2762E-02  at reduced coord.    0.7500    0.9375    0.9375
)     Minimum=    7.7653E-05  at reduced coord.    0.0000    0.0000    0.0000
   Integrated=    3.0000E+00
 Total charge density [el/Bohr^3]
)     Maximum=    3.2762E-02  at reduced coord.    0.7500    0.9375    0.9375
)     Minimum=    7.7653E-05  at reduced coord.    0.0000    0.0000    0.0000
   Integrated=    3.0000E+00
 
 ETOT  3  -2.1042411640842    -5.642E-06 1.356E-06 2.217E-05
 prteigrs : about to open file t05o_EIG
 Fermi (or HOMO) energy (hartree) =   0.33203   Average Vxc (hartree)=  -0.34513
 Eigenvalues (hartree) for nkpt=   2  k points:
 kpt#   1, nband=  4, wtk=  0.25000, kpt=  0.2500  0.2500  0.2500 (reduced coord)
  -0.00467    0.47462    0.75074    0.75074
      occupation numbers for kpt#   1
   2.00000    0.00160    0.00000    0.00000
 kpt#   2, nband=  4, wtk=  0.75000, kpt=  0.2500  0.5000  0.5000 (reduced coord)
   0.15851    0.31822    0.48230    0.60486
      occupation numbers for kpt#   2
   1.99966    1.33205    0.00109    0.00000
 Fermi (or HOMO) energy (eV) =   9.03496   Average Vxc (eV)=  -9.39149
 Eigenvalues (   eV  ) for nkpt=   2  k points:
 kpt#   1, nband=  4, wtk=  0.25000, kpt=  0.2500  0.2500  0.2500 (reduced coord)
  -0.12698   12.91494   20.42872   20.42872
 kpt#   2, nband=  4, wtk=  0.75000, kpt=  0.2500  0.5000  0.5000 (reduced coord)
   4.31331    8.65931   13.12397   16.45907
 scprqt: <Vxc>= -3.4513088E-01 hartree
 
 Pulay update with  2 previous iterations:
 mixing of old trial potential: alpha(m:m-4)=   1.14     -0.159      0.223E-01
{SCF_istep: 3 , Vnl|psi>: 32 , wall_time: '  0.02 [s] '} <<< TIME
 
 ITER STEP NUMBER     4
 vtorho: nnsclo_now = 1, note that nnsclo, dbl_nnsclo, istep= 0 0 4
 non-scf iterations; kpt #     1  , k= (  0.25000  0.25000  0.25000  ), band residuals:
 --- cgwf is called for band     1  for  3 lines
 --- cgwf is called for band     2  for  3 lines
 --- cgwf is called for band     3  for  3 lines
 --- cgwf is called for band     4  for  3 lines
 res:  5.72E-11  7.36E-11  2.91E-10  1.68E-09
 Performing subspace diagonalization.
 ene: -4.66E-03  4.75E-01  7.51E-01  7.51E-01
 Calling pw_orthon to orthonormalize bands.
     eigenvalues (hartree) for    4  bands
              after    2 non-SCF iterations with    3 CG line minimizations
 -4.6601E-03  4.7462E-01  7.5074E-01  7.5074E-01
      mean kinetic energy (hartree) for     4   bands
              after    2 non-SCF iterations with    3 CG line minimizations
  1.0378E-01  6.1423E-01  9.5211E-01  9.5211E-01
      mean NL+Fock-type energy (hartree) for     4   bands
              after    2 non-SCF iterations with    3 CG line minimizations
  1.1792E-01  1.3469E-01  1.7398E-01  1.7397E-01
 non-scf iterations; kpt #     2  , k= (  0.25000  0.50000  0.50000  ), band residuals:
 --- cgwf is called for band     1  for  3 lines
 --- cgwf is called for band     2  for  3 lines
 --- cgwf is called for band     3  for  3 lines
 --- cgwf is called for band     4  for  3 lines
 res:  1.31E-10  1.37E-10  3.13E-10  4.87E-08
 Performing subspace diagonalization.
 ene:  1.59E-01  3.18E-01  4.82E-01  6.05E-01
 Calling pw_orthon to orthonormalize bands.
     eigenvalues (hartree) for    4  bands
              after    2 non-SCF iterations with    3 CG line minimizations
  1.5852E-01  3.1823E-01  4.8230E-01  6.0486E-01
      mean kinetic energy (hartree) for     4   bands
              after    2 non-SCF iterations with    3 CG line minimizations
  2.6822E-01  4.3980E-01  6.1429E-01  7.6474E-01
      mean NL+Fock-type energy (hartree) for     4   bands
              after    2 non-SCF iterations with    3 CG line minimizations
  1.2416E-01  1.3141E-01  1.5880E-01  1.7913E-01
 newocc: new Fermi energy is       0.332032 , with nelect=      3.000000, Number of bisection calls: 47
 newocc: computed new occ. numbers for occopt= 3 , spin-unpolarized case.
 2.000 0.002 0.000 0.000
 2.000 1.332 0.001 0.000
 mkrho: echo density (plane-wave part only)
 Total charge density [el/Bohr^3]
)     Maximum=    3.2763E-02  at reduced coord.    0.7500    0.9375    0.9375
)     Minimum=    7.7569E-05  at reduced coord.    0.0000    0.0000    0.0000
   Integrated=    3.0000E+00
 Total charge density [el/Bohr^3]
)     Maximum=    3.2763E-02  at reduced coord.    0.7500    0.9375    0.9375
)     Minimum=    7.7569E-05  at reduced coord.    0.0000    0.0000    0.0000
   Integrated=    3.0000E+00
 
 ETOT  4  -2.1042411773515    -1.327E-08 4.874E-08 2.233E-07
 prteigrs : about to open file t05o_EIG
 Fermi (or HOMO) energy (hartree) =   0.33203   Average Vxc (hartree)=  -0.34513
 Eigenvalues (hartree) for nkpt=   2  k points:
 kpt#   1, nband=  4, wtk=  0.25000, kpt=  0.2500  0.2500  0.2500 (reduced coord)
  -0.00466    0.47462    0.75074    0.75074
      occupation numbers for kpt#   1
   2.00000    0.00160    0.00000    0.00000
 kpt#   2, nband=  4, wtk=  0.75000, kpt=  0.2500  0.5000  0.5000 (reduced coord)
   0.15852    0.31823    0.48230    0.60486
      occupation numbers for kpt#   2
   1.99966    1.33205    0.00109    0.00000
 Fermi (or HOMO) energy (eV) =   9.03506   Average Vxc (eV)=  -9.39146
 Eigenvalues (   eV  ) for nkpt=   2  k points:
 kpt#   1, nband=  4, wtk=  0.25000, kpt=  0.2500  0.2500  0.2500 (reduced coord)
  -0.12681   12.91500   20.42862   20.42862
 kpt#   2, nband=  4, wtk=  0.75000, kpt=  0.2500  0.5000  0.5000 (reduced coord)
   4.31346    8.65941   13.12415   16.45898
 scprqt: <Vxc>= -3.4512984E-01 hartree
 
 Pulay update with  3 previous iterations:
 mixing of old trial potential: alpha(m:m-4)=   1.05     -0.472E-01  0.103E-02 -0.384E-03
{SCF_istep: 4 , Vnl|psi>: 32 , wall_time: '  0.02 [s] '} <<< TIME
 
 ITER STEP NUMBER     5
 vtorho: nnsclo_now = 1, note that nnsclo, dbl_nnsclo, istep= 0 0 5
 non-scf iterations; kpt #     1  , k= (  0.25000  0.25000  0.25000  ), band residuals:
 --- cgwf is called for band     1  for  3 lines
 cgwf: line   2  deltae= -5.5553E-14 < tolrde* -2.0910E-11 =>skip lines
 --- cgwf is called for band     2  for  3 lines
 --- cgwf is called for band     3  for  3 lines
 --- cgwf is called for band     4  for  3 lines
 res:  9.77E-13  9.73E-13  7.24E-12  2.35E-11
 Performing subspace diagonalization.
 ene: -4.66E-03  4.75E-01  7.51E-01  7.51E-01
 Calling pw_orthon to orthonormalize bands.
     eigenvalues (hartree) for    4  bands
              after    2 non-SCF iterations with    3 CG line minimizations
 -4.6597E-03  4.7462E-01  7.5074E-01  7.5074E-01
      mean kinetic energy (hartree) for     4   bands
              after    2 non-SCF iterations with    3 CG line minimizations
  1.0378E-01  6.1423E-01  9.5211E-01  9.5211E-01
      mean NL+Fock-type energy (hartree) for     4   bands
              after    2 non-SCF iterations with    3 CG line minimizations
  1.1792E-01  1.3469E-01  1.7398E-01  1.7398E-01
 non-scf iterations; kpt #     2  , k= (  0.25000  0.50000  0.50000  ), band residuals:
 --- cgwf is called for band     1  for  3 lines
 --- cgwf is called for band     2  for  3 lines
 --- cgwf is called for band     3  for  3 lines
 --- cgwf is called for band     4  for  3 lines
 res:  2.45E-12  2.03E-12  4.18E-12  4.14E-09
 Performing subspace diagonalization.
 ene:  1.59E-01  3.18E-01  4.82E-01  6.05E-01
 Calling pw_orthon to orthonormalize bands.
     eigenvalues (hartree) for    4  bands
              after    2 non-SCF iterations with    3 CG line minimizations
  1.5852E-01  3.1823E-01  4.8230E-01  6.0486E-01
      mean kinetic energy (hartree) for     4   bands
              after    2 non-SCF iterations with    3 CG line minimizations
  2.6822E-01  4.3980E-01  6.1429E-01  7.6476E-01
      mean NL+Fock-type energy (hartree) for     4   bands
              after    2 non-SCF iterations with    3 CG line minimizations
  1.2416E-01  1.3141E-01  1.5881E-01  1.7916E-01
 newocc: new Fermi energy is       0.332033 , with nelect=      3.000000, Number of bisection calls: 49
 newocc: computed new occ. numbers for occopt= 3 , spin-unpolarized case.
 2.000 0.002 0.000 0.000
 2.000 1.332 0.001 0.000
 mkrho: echo density (plane-wave part only)
 Total charge density [el/Bohr^3]
)     Maximum=    3.2763E-02  at reduced coord.    0.0625    0.2500    0.6250
)     Minimum=    7.7559E-05  at reduced coord.    0.0000    0.0000    0.0000
   Integrated=    3.0000E+00
 Total charge density [el/Bohr^3]
)     Maximum=    3.2763E-02  at reduced coord.    0.0625    0.2500    0.6250
)     Minimum=    7.7559E-05  at reduced coord.    0.0000    0.0000    0.0000
   Integrated=    3.0000E+00
 
 ETOT  5  -2.1042411774551    -1.036E-10 4.143E-09 3.505E-09
 prteigrs : about to open file t05o_EIG
 Fermi (or HOMO) energy (hartree) =   0.33203   Average Vxc (hartree)=  -0.34513
 Eigenvalues (hartree) for nkpt=   2  k points:
 kpt#   1, nband=  4, wtk=  0.25000, kpt=  0.2500  0.2500  0.2500 (reduced coord)
  -0.00466    0.47462    0.75074    0.75074
      occupation numbers for kpt#   1
   2.00000    0.00160    0.00000    0.00000
 kpt#   2, nband=  4, wtk=  0.75000, kpt=  0.2500  0.5000  0.5000 (reduced coord)
   0.15852    0.31823    0.48230    0.60486
      occupation numbers for kpt#   2
   1.99966    1.33205    0.00109    0.00000
 Fermi (or HOMO) energy (eV) =   9.03506   Average Vxc (eV)=  -9.39146
 Eigenvalues (   eV  ) for nkpt=   2  k points:
 kpt#   1, nband=  4, wtk=  0.25000, kpt=  0.2500  0.2500  0.2500 (reduced coord)
  -0.12680   12.91500   20.42860   20.42860
 kpt#   2, nband=  4, wtk=  0.75000, kpt=  0.2500  0.5000  0.5000 (reduced coord)
   4.31347    8.65941   13.12416   16.45896
 scprqt: <Vxc>= -3.4512976E-01 hartree
 
 Pulay update with  4 previous iterations:
 mixing of old trial potential: alpha(m:m-4)=   1.15     -0.148     -0.176E-02  0.643E-03 -0.484E-04
{SCF_istep: 5 , Vnl|psi>: 31 , wall_time: '  0.02 [s] '} <<< TIME
 
 ITER STEP NUMBER     6
 vtorho: nnsclo_now = 1, note that nnsclo, dbl_nnsclo, istep= 0 0 6
 non-scf iterations; kpt #     1  , k= (  0.25000  0.25000  0.25000  ), band residuals:
 --- cgwf is called for band     1  for  3 lines
 --- cgwf is called for band     2  for  3 lines
 --- cgwf is called for band     3  for  3 lines
 --- cgwf is called for band     4  for  3 lines
 res:  9.19E-15  1.07E-14  1.31E-13  3.19E-13
 Performing subspace diagonalization.
 ene: -4.66E-03  4.75E-01  7.51E-01  7.51E-01
 Calling pw_orthon to orthonormalize bands.
     eigenvalues (hartree) for    4  bands
              after    2 non-SCF iterations with    3 CG line minimizations
 -4.6596E-03  4.7462E-01  7.5074E-01  7.5074E-01
      mean kinetic energy (hartree) for     4   bands
              after    2 non-SCF iterations with    3 CG line minimizations
  1.0378E-01  6.1423E-01  9.5211E-01  9.5211E-01
      mean NL+Fock-type energy (hartree) for     4   bands
              after    2 non-SCF iterations with    3 CG line minimizations
  1.1792E-01  1.3469E-01  1.7398E-01  1.7398E-01
 non-scf iterations; kpt #     2  , k= (  0.25000  0.50000  0.50000  ), band residuals:
 --- cgwf is called for band     1  for  3 lines
 --- cgwf is called for band     2  for  3 lines
 --- cgwf is called for band     3  for  3 lines
 --- cgwf is called for band     4  for  3 lines
 res:  5.93E-14  2.56E-14  7.29E-14  1.83E-10
 Performing subspace diagonalization.
 ene:  1.59E-01  3.18E-01  4.82E-01  6.05E-01
 Calling pw_orthon to orthonormalize bands.
     eigenvalues (hartree) for    4  bands
              after    2 non-SCF iterations with    3 CG line minimizations
  1.5852E-01  3.1823E-01  4.8230E-01  6.0486E-01
      mean kinetic energy (hartree) for     4   bands
              after    2 non-SCF iterations with    3 CG line minimizations
  2.6822E-01  4.3980E-01  6.1429E-01  7.6476E-01
      mean NL+Fock-type energy (hartree) for     4   bands
              after    2 non-SCF iterations with    3 CG line minimizations
  1.2416E-01  1.3141E-01  1.5881E-01  1.7916E-01
 newocc: new Fermi energy is       0.332033 , with nelect=      3.000000, Number of bisection calls: 48
 newocc: computed new occ. numbers for occopt= 3 , spin-unpolarized case.
 2.000 0.002 0.000 0.000
 2.000 1.332 0.001 0.000
 mkrho: echo density (plane-wave part only)
 Total charge density [el/Bohr^3]
)     Maximum=    3.2763E-02  at reduced coord.    0.0625    0.2500    0.6250
)     Minimum=    7.7559E-05  at reduced coord.    0.0000    0.0000    0.0000
   Integrated=    3.0000E+00
 Total charge density [el/Bohr^3]
)     Maximum=    3.2763E-02  at reduced coord.    0.0625    0.2500    0.6250
)     Minimum=    7.7559E-05  at reduced coord.    0.0000    0.0000    0.0000
   Integrated=    3.0000E+00
 
 ETOT  6  -2.1042411774570    -1.920E-12 1.830E-10 1.585E-11
 prteigrs : about to open file t05o_EIG
 Fermi (or HOMO) energy (hartree) =   0.33203   Average Vxc (hartree)=  -0.34513
 Eigenvalues (hartree) for nkpt=   2  k points:
 kpt#   1, nband=  4, wtk=  0.25000, kpt=  0.2500  0.2500  0.2500 (reduced coord)
  -0.00466    0.47462    0.75074    0.75074
      occupation numbers for kpt#   1
   2.00000    0.00160    0.00000    0.00000
 kpt#   2, nband=  4, wtk=  0.75000, kpt=  0.2500  0.5000  0.5000 (reduced coord)
   0.15852    0.31823    0.48230    0.60486
      occupation numbers for kpt#   2
   1.99966    1.33205    0.00109    0.00000
 Fermi (or HOMO) energy (eV) =   9.03506   Average Vxc (eV)=  -9.39146
 Eigenvalues (   eV  ) for nkpt=   2  k points:
 kpt#   1, nband=  4, wtk=  0.25000, kpt=  0.2500  0.2500  0.2500 (reduced coord)
  -0.12680   12.91500   20.42860   20.42860
 kpt#   2, nband=  4, wtk=  0.75000, kpt=  0.2500  0.5000  0.5000 (reduced coord)
   4.31347    8.65941   13.12416   16.45896
 scprqt: <Vxc>= -3.4512975E-01 hartree
 
 Pulay update with  5 previous iterations:
 mixing of old trial potential: alpha(m:m-4)=   1.15     -0.173      0.199E-01 -0.224E-03 -0.565E-05
{SCF_istep: 6 , Vnl|psi>: 32 , wall_time: '  0.03 [s] '} <<< TIME
 
 ITER STEP NUMBER     7
 vtorho: nnsclo_now = 1, note that nnsclo, dbl_nnsclo, istep= 0 0 7
 non-scf iterations; kpt #     1  , k= (  0.25000  0.25000  0.25000  ), band residuals:
 --- cgwf is called for band     1  for  3 lines
 cgwf: band    1 converged after  2 line minimizations: resid =  9.5052E-17
 --- cgwf is called for band     2  for  3 lines
 cgwf: band    2 converged after  3 line minimizations: resid =  7.8330E-17
 --- cgwf is called for band     3  for  3 lines
 --- cgwf is called for band     4  for  3 lines
 res:  9.51E-17  7.83E-17  4.46E-15  3.60E-15
 Performing subspace diagonalization.
 ene: -4.66E-03  4.75E-01  7.51E-01  7.51E-01
 Calling pw_orthon to orthonormalize bands.
     eigenvalues (hartree) for    4  bands
              after    2 non-SCF iterations with    3 CG line minimizations
 -4.6596E-03  4.7462E-01  7.5074E-01  7.5074E-01
      mean kinetic energy (hartree) for     4   bands
              after    2 non-SCF iterations with    3 CG line minimizations
  1.0378E-01  6.1423E-01  9.5211E-01  9.5211E-01
      mean NL+Fock-type energy (hartree) for     4   bands
              after    2 non-SCF iterations with    3 CG line minimizations
  1.1792E-01  1.3469E-01  1.7398E-01  1.7398E-01
 non-scf iterations; kpt #     2  , k= (  0.25000  0.50000  0.50000  ), band residuals:
 --- cgwf is called for band     1  for  3 lines
 --- cgwf is called for band     2  for  3 lines
 --- cgwf is called for band     3  for  3 lines
 --- cgwf is called for band     4  for  3 lines
 res:  2.57E-16  1.55E-16  4.36E-16  1.44E-11
 Performing subspace diagonalization.
 ene:  1.59E-01  3.18E-01  4.82E-01  6.05E-01
 Calling pw_orthon to orthonormalize bands.
     eigenvalues (hartree) for    4  bands
              after    2 non-SCF iterations with    3 CG line minimizations
  1.5852E-01  3.1823E-01  4.8230E-01  6.0486E-01
      mean kinetic energy (hartree) for     4   bands
              after    2 non-SCF iterations with    3 CG line minimizations
  2.6822E-01  4.3980E-01  6.1429E-01  7.6476E-01
      mean NL+Fock-type energy (hartree) for     4   bands
              after    2 non-SCF iterations with    3 CG line minimizations
  1.2416E-01  1.3141E-01  1.5881E-01  1.7916E-01
 newocc: new Fermi energy is       0.332033 , with nelect=      3.000000, Number of bisection calls: 49
 newocc: computed new occ. numbers for occopt= 3 , spin-unpolarized case.
 2.000 0.002 0.000 0.000
 2.000 1.332 0.001 0.000
 mkrho: echo density (plane-wave part only)
 Total charge density [el/Bohr^3]
)     Maximum=    3.2763E-02  at reduced coord.    0.0625    0.2500    0.6250
)     Minimum=    7.7559E-05  at reduced coord.    0.0000    0.0000    0.0000
   Integrated=    3.0000E+00
 Total charge density [el/Bohr^3]
)     Maximum=    3.2763E-02  at reduced coord.    0.0625    0.2500    0.6250
)     Minimum=    7.7559E-05  at reduced coord.    0.0000    0.0000    0.0000
   Integrated=    3.0000E+00
 
 ETOT  7  -2.1042411774570    -1.199E-14 1.440E-11 4.144E-14
 prteigrs : about to open file t05o_EIG
 Fermi (or HOMO) energy (hartree) =   0.33203   Average Vxc (hartree)=  -0.34513
 Eigenvalues (hartree) for nkpt=   2  k points:
 kpt#   1, nband=  4, wtk=  0.25000, kpt=  0.2500  0.2500  0.2500 (reduced coord)
  -0.00466    0.47462    0.75074    0.75074
      occupation numbers for kpt#   1
   2.00000    0.00160    0.00000    0.00000
 kpt#   2, nband=  4, wtk=  0.75000, kpt=  0.2500  0.5000  0.5000 (reduced coord)
   0.15852    0.31823    0.48230    0.60486
      occupation numbers for kpt#   2
   1.99966    1.33205    0.00109    0.00000
 Fermi (or HOMO) energy (eV) =   9.03506   Average Vxc (eV)=  -9.39146
 Eigenvalues (   eV  ) for nkpt=   2  k points:
 kpt#   1, nband=  4, wtk=  0.25000, kpt=  0.2500  0.2500  0.2500 (reduced coord)
  -0.12680   12.91500   20.42860   20.42860
 kpt#   2, nband=  4, wtk=  0.75000, kpt=  0.2500  0.5000  0.5000 (reduced coord)
   4.31347    8.65941   13.12416   16.45897
 scprqt: <Vxc>= -3.4512975E-01 hartree
 
 Pulay update with  6 previous iterations:
 mixing of old trial potential: alpha(m:m-4)=   1.11     -0.124      0.140E-01 -0.138E-02 -0.459E-05
{SCF_istep: 7 , Vnl|psi>: 29 , wall_time: '  0.03 [s] '} <<< TIME
 
 ITER STEP NUMBER     8
 vtorho: nnsclo_now = 1, note that nnsclo, dbl_nnsclo, istep= 0 0 8
 non-scf iterations; kpt #     1  , k= (  0.25000  0.25000  0.25000  ), band residuals:
 --- cgwf is called for band     1  for  3 lines
 cgwf: band    1 converged after  1 line minimizations: resid =  6.6463E-17
 --- cgwf is called for band     2  for  3 lines
 cgwf: band    2 converged after  1 line minimizations: resid =  3.8461E-17
 --- cgwf is called for band     3  for  3 lines
 cgwf: band    3 converged after  3 line minimizations: resid =  6.2465E-17
 --- cgwf is called for band     4  for  3 lines
 cgwf: band    4 converged after  3 line minimizations: resid =  4.3283E-17
 res:  6.65E-17  3.85E-17  6.25E-17  4.33E-17
 Performing subspace diagonalization.
 ene: -4.66E-03  4.75E-01  7.51E-01  7.51E-01
 Calling pw_orthon to orthonormalize bands.
     eigenvalues (hartree) for    4  bands
              after    1 non-SCF iterations with    3 CG line minimizations
 -4.6596E-03  4.7462E-01  7.5074E-01  7.5074E-01
      mean kinetic energy (hartree) for     4   bands
              after    1 non-SCF iterations with    3 CG line minimizations
  1.0378E-01  6.1423E-01  9.5211E-01  9.5211E-01
      mean NL+Fock-type energy (hartree) for     4   bands
              after    1 non-SCF iterations with    3 CG line minimizations
  1.1792E-01  1.3469E-01  1.7398E-01  1.7398E-01
 non-scf iterations; kpt #     2  , k= (  0.25000  0.50000  0.50000  ), band residuals:
 --- cgwf is called for band     1  for  3 lines
 cgwf: band    1 converged after  1 line minimizations: resid =  6.2989E-18
 --- cgwf is called for band     2  for  3 lines
 cgwf: band    2 converged after  1 line minimizations: resid =  1.3063E-17
 --- cgwf is called for band     3  for  3 lines
 cgwf: band    3 converged after  1 line minimizations: resid =  1.3624E-17
 --- cgwf is called for band     4  for  3 lines
 res:  6.30E-18  1.31E-17  1.36E-17  6.63E-13
 Performing subspace diagonalization.
 ene:  1.59E-01  3.18E-01  4.82E-01  6.05E-01
 Calling pw_orthon to orthonormalize bands.
     eigenvalues (hartree) for    4  bands
              after    2 non-SCF iterations with    3 CG line minimizations
  1.5852E-01  3.1823E-01  4.8230E-01  6.0486E-01
      mean kinetic energy (hartree) for     4   bands
              after    2 non-SCF iterations with    3 CG line minimizations
  2.6822E-01  4.3980E-01  6.1429E-01  7.6476E-01
      mean NL+Fock-type energy (hartree) for     4   bands
              after    2 non-SCF iterations with    3 CG line minimizations
  1.2416E-01  1.3141E-01  1.5881E-01  1.7916E-01
 newocc: new Fermi energy is       0.332033 , with nelect=      3.000000, Number of bisection calls: 47
 newocc: computed new occ. numbers for occopt= 3 , spin-unpolarized case.
 2.000 0.002 0.000 0.000
 2.000 1.332 0.001 0.000
 mkrho: echo density (plane-wave part only)
 Total charge density [el/Bohr^3]
)     Maximum=    3.2763E-02  at reduced coord.    0.0625    0.2500    0.6250
)     Minimum=    7.7559E-05  at reduced coord.    0.0000    0.0000    0.0000
   Integrated=    3.0000E+00
 Total charge density [el/Bohr^3]
)     Maximum=    3.2763E-02  at reduced coord.    0.0625    0.2500    0.6250
)     Minimum=    7.7559E-05  at reduced coord.    0.0000    0.0000    0.0000
   Integrated=    3.0000E+00
 
 ETOT  8  -2.1042411774570    -1.421E-14 6.633E-13 5.997E-16
 prteigrs : about to open file t05o_EIG
 Fermi (or HOMO) energy (hartree) =   0.33203   Average Vxc (hartree)=  -0.34513
 Eigenvalues (hartree) for nkpt=   2  k points:
 kpt#   1, nband=  4, wtk=  0.25000, kpt=  0.2500  0.2500  0.2500 (reduced coord)
  -0.00466    0.47462    0.75074    0.75074
      occupation numbers for kpt#   1
   2.00000    0.00160    0.00000    0.00000
 kpt#   2, nband=  4, wtk=  0.75000, kpt=  0.2500  0.5000  0.5000 (reduced coord)
   0.15852    0.31823    0.48230    0.60486
      occupation numbers for kpt#   2
   1.99966    1.33205    0.00109    0.00000
 Fermi (or HOMO) energy (eV) =   9.03506   Average Vxc (eV)=  -9.39146
 Eigenvalues (   eV  ) for nkpt=   2  k points:
 kpt#   1, nband=  4, wtk=  0.25000, kpt=  0.2500  0.2500  0.2500 (reduced coord)
  -0.12680   12.91500   20.42860   20.42860
 kpt#   2, nband=  4, wtk=  0.75000, kpt=  0.2500  0.5000  0.5000 (reduced coord)
   4.31347    8.65941   13.12416   16.45897
 scprqt: <Vxc>= -3.4512975E-01 hartree
 
 Pulay update with  7 previous iterations:
 mixing of old trial potential: alpha(m:m-4)=   1.26     -0.287      0.295E-01 -0.314E-02  0.292E-03
 
 -------------------------------------------------------------------------------------------------
 Ekinetic   = :     8.942822E-01 Ha ,    2.433466E+01 eV
 Evext_l    = :     3.240607E-01 Ha ,    8.818139E+00 eV
 Evext_nl   = :     3.766323E-01 Ha ,    1.024869E+01 eV
 Epsp_core  = :    -1.637745E-01 Ha ,   -4.456531E+00 eV
 Ehartree   = :     4.309169E-03 Ha ,    1.172585E-01 eV
 Exc_ks     = :    -8.056668E-01 Ha ,   -2.192331E+01 eV
 Enn        = :    -2.714721E+00 Ha ,   -7.387131E+01 eV
 -------------------------------------------------------------------------------------------------
 Etot       = :    -2.084878E+00 Ha ,   -5.673241E+01 eV
 -------------------------------------------------------------------------------------------------
 
 stress: component    1 of hartree stress is   -1.308854992843E-05
 stress: component    2 of hartree stress is   -1.308854992843E-05
 stress: component    3 of hartree stress is   -1.308854992843E-05
 stress: component    4 of hartree stress is    0.000000000000E+00
 stress: component    5 of hartree stress is    0.000000000000E+00
 stress: component    6 of hartree stress is   -1.550309025948E-21
 
 stress: component    1 of loc psp stress is   -1.079009712294E-03
 stress: component    2 of loc psp stress is   -1.079009712294E-03
 stress: component    3 of loc psp stress is   -1.079009712294E-03
 stress: component    4 of loc psp stress is   -6.898858761675E-20
 stress: component    5 of loc psp stress is    1.794991579002E-20
 stress: component    6 of loc psp stress is   -2.947108606821E-20
 
 stress: component    1 of kinetic stress is   -5.432534877005E-03
 stress: component    2 of kinetic stress is   -5.432534877005E-03
 stress: component    3 of kinetic stress is   -5.432534877005E-03
 stress: component    4 of kinetic stress is    1.117238803780E-18
 stress: component    5 of kinetic stress is   -1.233918899086E-18
 stress: component    6 of kinetic stress is   -1.038476111327E-18
 
 stress: component    1 of nonlocal ps stress is   -5.452358341602E-03
 stress: component    2 of nonlocal ps stress is   -5.452358341602E-03
 stress: component    3 of nonlocal ps stress is   -5.452358341602E-03
 stress: component    4 of nonlocal ps stress is   -8.505430893293E-19
 stress: component    5 of nonlocal ps stress is    5.447310518465E-19
 stress: component    6 of nonlocal ps stress is    6.718814630780E-19
 
 stress: component    1 of     core xc stress is    0.000000000000E+00
 stress: component    2 of     core xc stress is    0.000000000000E+00
 stress: component    3 of     core xc stress is    0.000000000000E+00
 stress: component    4 of     core xc stress is    0.000000000000E+00
 stress: component    5 of     core xc stress is    0.000000000000E+00
 stress: component    6 of     core xc stress is    0.000000000000E+00
 
 stress: component    1 of Ewald energ stress is    8.245616965957E-03
 stress: component    2 of Ewald energ stress is    8.245616965957E-03
 stress: component    3 of Ewald energ stress is    8.245616965957E-03
 stress: component    4 of Ewald energ stress is    1.510499384684E-19
 stress: component    5 of Ewald energ stress is    4.430166165509E-20
 stress: component    6 of Ewald energ stress is   -2.968343529759E-19
 
 stress: component    1 of xc stress is    2.223493311894E-03
 stress: component    2 of xc stress is    2.223493311894E-03
 stress: component    3 of xc stress is    2.223493311894E-03
 stress: component    4 of xc stress is    0.000000000000E+00
 stress: component    5 of xc stress is    0.000000000000E+00
 stress: component    6 of xc stress is    0.000000000000E+00
 
 stress: ii (diagonal) part is    1.492332238368E-03
 
 Cartesian components of stress tensor (hartree/bohr^3)
  sigma(1 1)= -1.55489646E-05  sigma(3 2)=  0.00000000E+00
  sigma(2 2)= -1.55489646E-05  sigma(3 1)=  0.00000000E+00
  sigma(3 3)= -1.55489646E-05  sigma(2 1)=  0.00000000E+00
 

--- !ScfConvergenceWarning
message: |
    nstep 8 was not enough SCF cycles to converge.
...
 
 scprqt:  WARNING -
  nstep=    8 was not enough SCF cycles to converge;
  maximum residual each band. tolwfr=   1.000E-16
  iband, isppol, individual band residuals (max over all k-points):
     1     1  6.646E-17
     2     1  3.846E-17
     3     1  6.246E-17
     4     1  6.633E-13
  maximum residual=  6.633E-13 exceeds tolwfr=  1.000E-16
 
 
 fftdatar_write: About to write data to: t05o_DEN with iomode: IO_MODE_FORTRAN
 IO operation , wall:  0.01 [s] , cpu:  0.00 [s] <<< TIME
 Integrated electronic density in atomic spheres:
 ------------------------------------------------
 Atom  Sphere_radius  Integrated_density
    1        2.00000          0.91131062
- Creating HDf5 file WITHOUT MPI-IO support: t05o_GSR.nc
================================================================================
 
 ----iterations are completed or convergence reached----
 
 Mean square residual over all n,k,spin=   82.942E-15; max=  66.329E-14
   0.2500  0.2500  0.2500    1  6.64626E-17 kpt; spin; max resid(k); each band:
  6.65E-17 3.85E-17 6.25E-17 4.33E-17
   0.2500  0.5000  0.5000    1  6.63290E-13 kpt; spin; max resid(k); each band:
  6.30E-18 1.31E-17 1.36E-17 6.63E-13
 
   outwf: writing wavefunctions to: t05o_WFK with iomode: IO_MODE_FORTRAN_MASTER
 WFK output , wall:  0.01 [s] , cpu:  0.00 [s] <<< TIME
 prteigrs : about to open file t05o_EIG
 Fermi (or HOMO) energy (hartree) =   0.33203   Average Vxc (hartree)=  -0.34513
 Eigenvalues (hartree) for nkpt=   2  k points:
 kpt#   1, nband=  4, wtk=  0.25000, kpt=  0.2500  0.2500  0.2500 (reduced coord)
  -0.00466    0.47462    0.75074    0.75074
      occupation numbers for kpt#   1
   2.00000    0.00160    0.00000    0.00000
 kpt#   2, nband=  4, wtk=  0.75000, kpt=  0.2500  0.5000  0.5000 (reduced coord)
   0.15852    0.31823    0.48230    0.60486
      occupation numbers for kpt#   2
   1.99966    1.33205    0.00109    0.00000
 Fermi (or HOMO) energy (eV) =   9.03506   Average Vxc (eV)=  -9.39146
 Eigenvalues (   eV  ) for nkpt=   2  k points:
 kpt#   1, nband=  4, wtk=  0.25000, kpt=  0.2500  0.2500  0.2500 (reduced coord)
  -0.12680   12.91500   20.42860   20.42860
 kpt#   2, nband=  4, wtk=  0.75000, kpt=  0.2500  0.5000  0.5000 (reduced coord)
   4.31347    8.65941   13.12416   16.45897
 Total charge density [el/Bohr^3]
)     Maximum=    3.2763E-02  at reduced coord.    0.0625    0.2500    0.6250
)Next maximum=    3.2763E-02  at reduced coord.    0.2500    0.0625    0.6250
)     Minimum=    7.7559E-05  at reduced coord.    0.0000    0.0000    0.0000
)Next minimum=    1.0527E-03  at reduced coord.    0.0625    0.0000    0.0000
   Integrated=    3.0000E+00
 
 Cartesian components of stress tensor (hartree/bohr^3)
  sigma(1 1)= -1.55489646E-05  sigma(3 2)=  0.00000000E+00
  sigma(2 2)= -1.55489646E-05  sigma(3 1)=  0.00000000E+00
  sigma(3 3)= -1.55489646E-05  sigma(2 1)=  0.00000000E+00
 
-Cartesian components of stress tensor (GPa)         [Pressure=  4.5747E-01 GPa]
- sigma(1 1)= -4.57466256E-01  sigma(3 2)=  0.00000000E+00
- sigma(2 2)= -4.57466256E-01  sigma(3 1)=  0.00000000E+00
- sigma(3 3)= -4.57466256E-01  sigma(2 1)=  0.00000000E+00
 dataset: 1 , wall:  0.58 [s] , cpu:  0.17 [s] <<< TIME
 
== END DATASET(S) ==============================================================
================================================================================
  
 -outvars: echo values of variables after computation  --------
 
 These variables are accessible in NetCDF format (t05o_OUT.nc)

            acell      7.6000000000E+00  7.6000000000E+00  7.6000000000E+00 Bohr
              amu      2.69815390E+01
             ecut      1.00000000E+01 Hartree
           enunit           2
           etotal     -2.1042411775E+00
            fcart      0.0000000000E+00  0.0000000000E+00  0.0000000000E+00
-          fftalg         400
            intxc           1
              kpt      1.00000000E+00  1.00000000E+00  1.00000000E+00
                       1.00000000E+00  2.00000000E+00  2.00000000E+00
           kptnrm      4.00000000E+00
           kptopt           0
P           mkmem           2
            natom           1
            nband           4
            ngfft          16      16      16
             nkpt           2
            nline           3
            nstep           8
             nsym          24
           ntypat           1
              occ      2.000000  0.001601  0.000000  0.000000
                       1.999659  1.332048  0.001091  0.000002
           occopt           3
           prtvol          10
            rprim      0.0000000000E+00  5.0000000000E-01  5.0000000000E-01
                       5.0000000000E-01  0.0000000000E+00  5.0000000000E-01
                       5.0000000000E-01  5.0000000000E-01  0.0000000000E+00
          spgroup         216
           strten     -1.5548964611E-05 -1.5548964611E-05 -1.5548964611E-05
                       0.0000000000E+00  0.0000000000E+00  0.0000000000E+00
           symrel      1  0  0   0  1  0   0  0  1       0  1 -1   1  0 -1   0  0 -1
                      -1  0  0  -1  0  1  -1  1  0       0 -1  1   0 -1  0   1 -1  0
                      -1  0  1  -1  0  0  -1  1  0       0 -1  0   0 -1  1   1 -1  0
                       0 -1  1   1 -1  0   0 -1  0       0  1 -1   0  0 -1   1  0 -1
                       0  0 -1   1  0 -1   0  1 -1      -1  1  0  -1  0  1  -1  0  0
                       1  0 -1   0  1 -1   0  0 -1       1 -1  0   0 -1  0   0 -1  1
                      -1  0  0  -1  1  0  -1  0  1       0  1  0   1  0  0   0  0  1
                       0  0  1   0  1  0   1  0  0       1  0  0   0  0  1   0  1  0
                       0  0  1   1  0  0   0  1  0       0  1  0   0  0  1   1  0  0
                      -1  0  1  -1  1  0  -1  0  0       0  0 -1   0  1 -1   1  0 -1
                       1  0 -1   0  0 -1   0  1 -1       1 -1  0   0 -1  1   0 -1  0
                       0 -1  0   1 -1  0   0 -1  1      -1  1  0  -1  0  0  -1  0  1
           tolwfr      1.00000000E-16
           tsmear      2.00000000E-02 Hartree
            typat      1
              wtk        0.25000    0.75000
            znucl       13.00000
 
================================================================================
 
--- !COMMENT
src_file: m_symfind.F90
src_line: 833
message: |
    The tolerance on symmetries =   1.000E-05 is bigger than 1.0e-8.
    In order to avoid spurious effects, the atomic coordinates have been
    symmetrized before storing them in the dataset internal variable.
    So, do not be surprised by the fact that your input variables (xcart, xred, ...)
    do not correspond exactly to the ones echoed by ABINIT, the latter being used to do the calculations.
    This is not a problem per se.
    Still, in order to avoid this symmetrization (e.g. for specific debugging/development), decrease tolsym to 1.0e-8 or lower,
    or (much preferred) use input primitive vectors that are accurate to better than 1.0e-8.
    This message will only be printed once, even if there are other datasets where tolsym is bigger than 1.0e-8.
...
 
 
 symlatt: the Bravais lattice is cF (face-centered cubic)
 symspgr: spgroup= 225  Fm -3 m   (=Oh^5)
 symspgr: optical characteristics = isotropic
 
 The spacegroup number, the magnetic point group, and/or the number of symmetries
 have changed between the initial recognition based on the input file
 and a postprocessing based on the final acell, rprim, and xred.
 These modifications are detailed below.
 The updated tnons, symrel or symrel have NOT been reported in the final echo of variables after computation.
 Such change of spacegroup, or magnetic point group might happen in several cases.
 (1) If spgroup (+ptgroupma) defined in the input file, but the actual groups are supergroups of these; 
 (2) If symrel, tnons (+symafm) defined in the input file, while the system is more symmetric;
 (3) If the geometry has been optimized and the final structure is more symmetric than the initial one;
 (4) In case of GW of BSE calculation with inversion symmetry, as nsym has been reduced in such
       dataset, excluding the improper symmetry operations (with determinant=-1), but not in the postprocessing.
 
 Initial data. jdtset, iimage, nsym=       0       1      24
 Symmetries : space group F-4 3 m (#216); Bravais cF (face-center cubic)
 Final data.   jdtset, iimage, nsym=       0       1      48
 Symmetries : space group Fm -3 m (#225); Bravais cF (face-center cubic)
 
================================================================================
  
 Proc.   0 individual time (sec): cpu=          0.4  wall=          1.2
 
 Calculation completed.
.Delivered   1 WARNINGs and   5 COMMENTs to log file.

--- !FinalSummary
program: abinit
version: 10.4.7
start_datetime: Mon Jun 29 14:28:05 2026
end_datetime: Mon Jun 29 14:28:06 2026
overall_cpu_time:           0.4
overall_wall_time:           1.2
exit_requested_by_user: no 
timelimit: 0
pseudos: 
    Al  : da1cca40f1e31644dc2f12f981205280
usepaw: 0
mpi_procs: 1
omp_threads: 1
num_warnings: 1
num_comments: 5
...
